/*--------------------------------*- C++ -*----------------------------------*\
| =========                 |                                                 |
| \\      /  F ield         | OpenFOAM Extend Project: Open source CFD        |
|  \\    /   O peration     | Version:  1.6-ext                               |
|   \\  /    A nd           | Web:      www.extend-project.de                 |
|    \\/     M anipulation  |                                                 |
\*---------------------------------------------------------------------------*/
FoamFile
{
    version     2.0;
    format      ascii;
    class       volScalarField;
    location    "0";
    object      kSqrt;
}
// * * * * * * * * * * * * * * * * * * * * * * * * * * * * * * * * * * * * * //
dimensions      [0 1 -1 0 0 0 0];
internalField   uniform 0.316; 
boundaryField
{
    WALL_TOP
    {
        type            fixedValue;
        value           uniform 3.16e-8;
    }
    WALL_BOTTOM
    {
        type            fixedValue;
        value           uniform 3.16e-8;
    }
    frontAndBackPlanes
    {
        type            zeroGradient;
    }
    INOUT_CYC
    {
        type            cyclic;
        value           uniform 0.316; 
    }
}
// ************************************************************************* //
