/*--------------------------------*- C++ -*----------------------------------*\
| =========                 |                                                 |
| \\      /  F ield         | OpenFOAM Extend Project: Open source CFD        |
|  \\    /   O peration     | Version:  1.6-ext                               |
|   \\  /    A nd           | Web:      www.extend-project.de                 |
|    \\/     M anipulation  |                                                 |
\*---------------------------------------------------------------------------*/
FoamFile
{
    version     2.0;
    format      ascii;
    class       volVectorField;
    location    "0";
    object      U;
}
// * * * * * * * * * * * * * * * * * * * * * * * * * * * * * * * * * * * * * //
dimensions      [0 1 -1 0 0 0 0];
internalField   uniform (18.692 0.0 0.0);
boundaryField
{
    WALL_TOP
    {
        type            fixedValue;
        value           uniform (1e-15 1e-15 1e-15);
    }
    WALL_BOTTOM
    {
        type            fixedValue;
        value           uniform (1e-15 1e-15 1e-15);
    }
    frontAndBackPlanes
    {
        type            zeroGradient;
    }
    INOUT_CYC
    {
        type            cyclic;
        value           uniform (18.692 0.0 0.0);
    }
}
// ************************************************************************* //
